<?xml version="1.0"?>
<VTKFile type="UnstructuredGrid" version="0.1" byte_order="LittleEndian">
  <UnstructuredGrid>
    <Piece NumberOfPoints="4" NumberOfCells="0">
      <PointData>
        <DataArray type="Float64" Name="displacement" NumberOfComponents="3" format="ascii">
 0.0 0.0 0.0  1.0 0.0 0.0  0.0 1.0 0.0  0.0 0.0 1.0
        </DataArray>
        <DataArray type="Float64" Name="VonMises" NumberOfComponents="1" format="ascii">
 1.0e6 2.0e6 3.0e6 4.0e6
        </DataArray>
      </PointData>
      <CellData>
      </CellData>
      <Points>
        <DataArray type="Float64" NumberOfComponents="3" format="ascii">
 0.0 0.0 0.0  1.0 0.0 0.0  0.0 1.0 0.0  0.0 0.0 1.0
        </DataArray>
      </Points>
      <Cells>
        <DataArray type="Int32" Name="connectivity" format="ascii">
 0 1 2 3
        </DataArray>
        <DataArray type="Int32" Name="offsets" format="ascii">
 4
        </DataArray>
        <DataArray type="Int32" Name="types" format="ascii">
 10
        </DataArray>
      </Cells>
    </Piece>
  </UnstructuredGrid>
</VTKFile>
